  12  12   1   0
  0.7629336E+02  0.6019200E-09  0.1014000E-08  0.1500000E-08  0.3500000E-15
   1.0000000000000000E-004
  CAR 
 Al2C                                    
      0.00000000     -5.00000000 2000     -2.74636342      1.00000000
     -5.000  0.5818E+01  0.2710E+02
     -4.997  0.5821E+01  0.2711E+02
     -4.995  0.5825E+01  0.2713E+02
     -4.992  0.5829E+01  0.2714E+02
     -4.990  0.5832E+01  0.2716E+02
     -4.987  0.5836E+01  0.2717E+02
     -4.985  0.5839E+01  0.2718E+02
     -4.982  0.5843E+01  0.2720E+02
     -4.980  0.5846E+01  0.2721E+02
     -4.977  0.5850E+01  0.2723E+02
     -4.975  0.5853E+01  0.2724E+02
     -4.972  0.5854E+01  0.2726E+02
     -4.970  0.5854E+01  0.2727E+02
     -4.967  0.5854E+01  0.2729E+02
     -4.965  0.5854E+01  0.2730E+02
     -4.962  0.5854E+01  0.2732E+02
     -4.960  0.5854E+01  0.2733E+02
     -4.957  0.5854E+01  0.2735E+02
     -4.955  0.5853E+01  0.2736E+02
     -4.952  0.5853E+01  0.2738E+02
     -4.950  0.5855E+01  0.2739E+02
     -4.947  0.5858E+01  0.2740E+02
     -4.945  0.5860E+01  0.2742E+02
     -4.942  0.5863E+01  0.2743E+02
     -4.940  0.5865E+01  0.2745E+02
     -4.937  0.5868E+01  0.2746E+02
     -4.935  0.5870E+01  0.2748E+02
     -4.932  0.5873E+01  0.2749E+02
     -4.930  0.5875E+01  0.2751E+02
     -4.927  0.5877E+01  0.2752E+02
     -4.925  0.5880E+01  0.2754E+02
     -4.922  0.5882E+01  0.2755E+02
     -4.920  0.5885E+01  0.2757E+02
     -4.917  0.5887E+01  0.2758E+02
     -4.915  0.5890E+01  0.2760E+02
     -4.912  0.5892E+01  0.2761E+02
     -4.910  0.5895E+01  0.2763E+02
     -4.907  0.5897E+01  0.2764E+02
     -4.905  0.5900E+01  0.2765E+02
     -4.902  0.5902E+01  0.2767E+02
     -4.900  0.5905E+01  0.2768E+02
     -4.897  0.5907E+01  0.2770E+02
     -4.895  0.5910E+01  0.2771E+02
     -4.892  0.5912E+01  0.2773E+02
     -4.890  0.5919E+01  0.2774E+02
     -4.887  0.5928E+01  0.2776E+02
     -4.885  0.5937E+01  0.2777E+02
     -4.882  0.5947E+01  0.2779E+02
     -4.880  0.5956E+01  0.2780E+02
     -4.877  0.5966E+01  0.2782E+02
     -4.875  0.5975E+01  0.2783E+02
     -4.872  0.5984E+01  0.2785E+02
     -4.870  0.5994E+01  0.2786E+02
     -4.867  0.6021E+01  0.2788E+02
     -4.865  0.6050E+01  0.2789E+02
     -4.862  0.6079E+01  0.2791E+02
     -4.860  0.6108E+01  0.2792E+02
     -4.857  0.6137E+01  0.2794E+02
     -4.855  0.6166E+01  0.2795E+02
     -4.852  0.6195E+01  0.2797E+02
     -4.850  0.6245E+01  0.2798E+02
     -4.847  0.6295E+01  0.2800E+02
     -4.845  0.6345E+01  0.2802E+02
     -4.842  0.6395E+01  0.2803E+02
     -4.840  0.6445E+01  0.2805E+02
     -4.837  0.6494E+01  0.2806E+02
     -4.835  0.6544E+01  0.2808E+02
     -4.832  0.6594E+01  0.2810E+02
     -4.830  0.6644E+01  0.2811E+02
     -4.827  0.6694E+01  0.2813E+02
     -4.825  0.6744E+01  0.2815E+02
     -4.822  0.6793E+01  0.2816E+02
     -4.820  0.6843E+01  0.2818E+02
     -4.817  0.6893E+01  0.2820E+02
     -4.815  0.6943E+01  0.2822E+02
     -4.812  0.6983E+01  0.2823E+02
     -4.810  0.7412E+01  0.2825E+02
     -4.807  0.7945E+01  0.2827E+02
     -4.805  0.8478E+01  0.2829E+02
     -4.802  0.9010E+01  0.2831E+02
     -4.800  0.9543E+01  0.2834E+02
     -4.797  0.1008E+02  0.2836E+02
     -4.795  0.1061E+02  0.2839E+02
     -4.792  0.1298E+02  0.2841E+02
     -4.790  0.1506E+02  0.2845E+02
     -4.787  0.1591E+02  0.2849E+02
     -4.785  0.1641E+02  0.2853E+02
     -4.782  0.1609E+02  0.2857E+02
     -4.780  0.1497E+02  0.2861E+02
     -4.777  0.1386E+02  0.2865E+02
     -4.775  0.1274E+02  0.2868E+02
     -4.772  0.1163E+02  0.2871E+02
     -4.770  0.1051E+02  0.2874E+02
     -4.767  0.9394E+01  0.2876E+02
     -4.765  0.8771E+01  0.2878E+02
     -4.762  0.8341E+01  0.2881E+02
     -4.760  0.7911E+01  0.2883E+02
     -4.757  0.7482E+01  0.2885E+02
     -4.755  0.7052E+01  0.2886E+02
     -4.752  0.6739E+01  0.2888E+02
     -4.750  0.6690E+01  0.2890E+02
     -4.747  0.6641E+01  0.2891E+02
     -4.745  0.6592E+01  0.2893E+02
     -4.742  0.6543E+01  0.2895E+02
     -4.740  0.6494E+01  0.2896E+02
     -4.737  0.6445E+01  0.2898E+02
     -4.735  0.6396E+01  0.2900E+02
     -4.732  0.6347E+01  0.2901E+02
     -4.730  0.6298E+01  0.2903E+02
     -4.727  0.6256E+01  0.2904E+02
     -4.725  0.6218E+01  0.2906E+02
     -4.722  0.6180E+01  0.2907E+02
     -4.720  0.6142E+01  0.2909E+02
     -4.717  0.6104E+01  0.2911E+02
     -4.715  0.6068E+01  0.2912E+02
     -4.712  0.6042E+01  0.2914E+02
     -4.710  0.6016E+01  0.2915E+02
     -4.707  0.5990E+01  0.2917E+02
     -4.705  0.5964E+01  0.2918E+02
     -4.702  0.5938E+01  0.2920E+02
     -4.700  0.5912E+01  0.2921E+02
     -4.697  0.5886E+01  0.2922E+02
     -4.695  0.5860E+01  0.2924E+02
     -4.692  0.5834E+01  0.2925E+02
     -4.690  0.5808E+01  0.2927E+02
     -4.687  0.5781E+01  0.2928E+02
     -4.685  0.5755E+01  0.2930E+02
     -4.682  0.5729E+01  0.2931E+02
     -4.680  0.5703E+01  0.2933E+02
     -4.677  0.5677E+01  0.2934E+02
     -4.675  0.5651E+01  0.2935E+02
     -4.672  0.5625E+01  0.2937E+02
     -4.670  0.5594E+01  0.2938E+02
     -4.667  0.5561E+01  0.2940E+02
     -4.665  0.5528E+01  0.2941E+02
     -4.662  0.5494E+01  0.2942E+02
     -4.660  0.5461E+01  0.2944E+02
     -4.657  0.5428E+01  0.2945E+02
     -4.655  0.5395E+01  0.2947E+02
     -4.652  0.5362E+01  0.2948E+02
     -4.650  0.5328E+01  0.2949E+02
     -4.647  0.5295E+01  0.2951E+02
     -4.645  0.5262E+01  0.2952E+02
     -4.642  0.5229E+01  0.2953E+02
     -4.640  0.5196E+01  0.2954E+02
     -4.637  0.5162E+01  0.2956E+02
     -4.635  0.5148E+01  0.2957E+02
     -4.632  0.5147E+01  0.2958E+02
     -4.630  0.5146E+01  0.2960E+02
     -4.627  0.5145E+01  0.2961E+02
     -4.625  0.5144E+01  0.2962E+02
     -4.622  0.5143E+01  0.2964E+02
     -4.620  0.5142E+01  0.2965E+02
     -4.617  0.5141E+01  0.2966E+02
     -4.615  0.5141E+01  0.2967E+02
     -4.612  0.5140E+01  0.2969E+02
     -4.610  0.5139E+01  0.2970E+02
     -4.607  0.5138E+01  0.2971E+02
     -4.605  0.5137E+01  0.2973E+02
     -4.602  0.5136E+01  0.2974E+02
     -4.600  0.5135E+01  0.2975E+02
     -4.597  0.5134E+01  0.2976E+02
     -4.595  0.5133E+01  0.2978E+02
     -4.592  0.5133E+01  0.2979E+02
     -4.590  0.5132E+01  0.2980E+02
     -4.587  0.5107E+01  0.2981E+02
     -4.585  0.5081E+01  0.2983E+02
     -4.582  0.5055E+01  0.2984E+02
     -4.580  0.5028E+01  0.2985E+02
     -4.577  0.5002E+01  0.2987E+02
     -4.575  0.5003E+01  0.2988E+02
     -4.572  0.5016E+01  0.2989E+02
     -4.570  0.5028E+01  0.2990E+02
     -4.567  0.5041E+01  0.2992E+02
     -4.565  0.5054E+01  0.2993E+02
     -4.562  0.5048E+01  0.2994E+02
     -4.560  0.5006E+01  0.2995E+02
     -4.557  0.4965E+01  0.2997E+02
     -4.555  0.4923E+01  0.2998E+02
     -4.552  0.4882E+01  0.2999E+02
     -4.550  0.4840E+01  0.3000E+02
     -4.547  0.4799E+01  0.3001E+02
     -4.545  0.4757E+01  0.3003E+02
     -4.542  0.4716E+01  0.3004E+02
     -4.540  0.4717E+01  0.3005E+02
     -4.537  0.4810E+01  0.3006E+02
     -4.535  0.4964E+01  0.3007E+02
     -4.532  0.5121E+01  0.3009E+02
     -4.530  0.5272E+01  0.3010E+02
     -4.527  0.5424E+01  0.3011E+02
     -4.525  0.5576E+01  0.3013E+02
     -4.522  0.5728E+01  0.3014E+02
     -4.520  0.5880E+01  0.3016E+02
     -4.517  0.6029E+01  0.3017E+02
     -4.515  0.6178E+01  0.3019E+02
     -4.512  0.6328E+01  0.3020E+02
     -4.510  0.6477E+01  0.3022E+02
     -4.507  0.6627E+01  0.3023E+02
     -4.505  0.6776E+01  0.3025E+02
     -4.502  0.6965E+01  0.3027E+02
     -4.500  0.7245E+01  0.3029E+02
     -4.497  0.7525E+01  0.3030E+02
     -4.495  0.7806E+01  0.3032E+02
     -4.492  0.8086E+01  0.3034E+02
     -4.490  0.8366E+01  0.3036E+02
     -4.487  0.8646E+01  0.3039E+02
     -4.485  0.8926E+01  0.3041E+02
     -4.482  0.9206E+01  0.3043E+02
     -4.480  0.9177E+01  0.3045E+02
     -4.477  0.9131E+01  0.3048E+02
     -4.475  0.9085E+01  0.3050E+02
     -4.472  0.9039E+01  0.3052E+02
     -4.470  0.9003E+01  0.3054E+02
     -4.467  0.9006E+01  0.3057E+02
     -4.465  0.9010E+01  0.3059E+02
     -4.462  0.9014E+01  0.3061E+02
     -4.460  0.9017E+01  0.3063E+02
     -4.457  0.9027E+01  0.3066E+02
     -4.455  0.9226E+01  0.3068E+02
     -4.452  0.9432E+01  0.3070E+02
     -4.450  0.9638E+01  0.3073E+02
     -4.447  0.9844E+01  0.3075E+02
     -4.445  0.1005E+02  0.3078E+02
     -4.442  0.1025E+02  0.3080E+02
     -4.440  0.1043E+02  0.3083E+02
     -4.437  0.1060E+02  0.3085E+02
     -4.435  0.1072E+02  0.3088E+02
     -4.432  0.1085E+02  0.3091E+02
     -4.430  0.1097E+02  0.3093E+02
     -4.427  0.1109E+02  0.3096E+02
     -4.425  0.1108E+02  0.3099E+02
     -4.422  0.1098E+02  0.3102E+02
     -4.420  0.1088E+02  0.3104E+02
     -4.417  0.1078E+02  0.3107E+02
     -4.415  0.1069E+02  0.3110E+02
     -4.412  0.1059E+02  0.3113E+02
     -4.410  0.1049E+02  0.3115E+02
     -4.407  0.1039E+02  0.3118E+02
     -4.405  0.1030E+02  0.3120E+02
     -4.402  0.1010E+02  0.3123E+02
     -4.400  0.9678E+01  0.3125E+02
     -4.397  0.9257E+01  0.3128E+02
     -4.395  0.8836E+01  0.3130E+02
     -4.392  0.8415E+01  0.3132E+02
     -4.390  0.7993E+01  0.3134E+02
     -4.387  0.7572E+01  0.3136E+02
     -4.385  0.7151E+01  0.3138E+02
     -4.382  0.6769E+01  0.3140E+02
     -4.380  0.6686E+01  0.3141E+02
     -4.377  0.6667E+01  0.3143E+02
     -4.375  0.6665E+01  0.3145E+02
     -4.372  0.6692E+01  0.3146E+02
     -4.370  0.6726E+01  0.3148E+02
     -4.367  0.6759E+01  0.3150E+02
     -4.365  0.6793E+01  0.3151E+02
     -4.362  0.6825E+01  0.3153E+02
     -4.360  0.6858E+01  0.3155E+02
     -4.357  0.6890E+01  0.3157E+02
     -4.355  0.6922E+01  0.3158E+02
     -4.352  0.6954E+01  0.3160E+02
     -4.350  0.6987E+01  0.3162E+02
     -4.347  0.7019E+01  0.3164E+02
     -4.345  0.7051E+01  0.3165E+02
     -4.342  0.7084E+01  0.3167E+02
     -4.340  0.7116E+01  0.3169E+02
     -4.337  0.7148E+01  0.3171E+02
     -4.335  0.7180E+01  0.3172E+02
     -4.332  0.7167E+01  0.3174E+02
     -4.330  0.7147E+01  0.3176E+02
     -4.327  0.7128E+01  0.3178E+02
     -4.325  0.7108E+01  0.3180E+02
     -4.322  0.7120E+01  0.3181E+02
     -4.320  0.7157E+01  0.3183E+02
     -4.317  0.7194E+01  0.3185E+02
     -4.315  0.7231E+01  0.3187E+02
     -4.312  0.7268E+01  0.3189E+02
     -4.310  0.7305E+01  0.3190E+02
     -4.307  0.7342E+01  0.3192E+02
     -4.305  0.7379E+01  0.3194E+02
     -4.302  0.7416E+01  0.3196E+02
     -4.300  0.7453E+01  0.3198E+02
     -4.297  0.7491E+01  0.3200E+02
     -4.295  0.7528E+01  0.3202E+02
     -4.292  0.7565E+01  0.3203E+02
     -4.290  0.7602E+01  0.3205E+02
     -4.287  0.7639E+01  0.3207E+02
     -4.285  0.7676E+01  0.3209E+02
     -4.282  0.7713E+01  0.3211E+02
     -4.280  0.7750E+01  0.3213E+02
     -4.277  0.7787E+01  0.3215E+02
     -4.275  0.7824E+01  0.3217E+02
     -4.272  0.7861E+01  0.3219E+02
     -4.270  0.7898E+01  0.3221E+02
     -4.267  0.7935E+01  0.3223E+02
     -4.265  0.7972E+01  0.3225E+02
     -4.262  0.8009E+01  0.3227E+02
     -4.260  0.8047E+01  0.3229E+02
     -4.257  0.8084E+01  0.3231E+02
     -4.255  0.8121E+01  0.3233E+02
     -4.252  0.8049E+01  0.3235E+02
     -4.250  0.7980E+01  0.3237E+02
     -4.247  0.7910E+01  0.3239E+02
     -4.245  0.7841E+01  0.3241E+02
     -4.242  0.7771E+01  0.3243E+02
     -4.240  0.7702E+01  0.3245E+02
     -4.237  0.7666E+01  0.3247E+02
     -4.235  0.7690E+01  0.3249E+02
     -4.232  0.7713E+01  0.3250E+02
     -4.230  0.7736E+01  0.3252E+02
     -4.227  0.7759E+01  0.3254E+02
     -4.225  0.7790E+01  0.3256E+02
     -4.222  0.7847E+01  0.3258E+02
     -4.220  0.7903E+01  0.3260E+02
     -4.217  0.7959E+01  0.3262E+02
     -4.215  0.8015E+01  0.3264E+02
     -4.212  0.8071E+01  0.3266E+02
     -4.210  0.8127E+01  0.3268E+02
     -4.207  0.8183E+01  0.3270E+02
     -4.205  0.8239E+01  0.3272E+02
     -4.202  0.8295E+01  0.3274E+02
     -4.200  0.8352E+01  0.3276E+02
     -4.197  0.8408E+01  0.3279E+02
     -4.195  0.8464E+01  0.3281E+02
     -4.192  0.8520E+01  0.3283E+02
     -4.190  0.8576E+01  0.3285E+02
     -4.187  0.8632E+01  0.3287E+02
     -4.185  0.8688E+01  0.3289E+02
     -4.182  0.8744E+01  0.3291E+02
     -4.180  0.8678E+01  0.3294E+02
     -4.177  0.8603E+01  0.3296E+02
     -4.175  0.8527E+01  0.3298E+02
     -4.172  0.8452E+01  0.3300E+02
     -4.170  0.8376E+01  0.3302E+02
     -4.167  0.8299E+01  0.3304E+02
     -4.165  0.8213E+01  0.3306E+02
     -4.162  0.8128E+01  0.3308E+02
     -4.160  0.8042E+01  0.3310E+02
     -4.157  0.7957E+01  0.3312E+02
     -4.155  0.7872E+01  0.3314E+02
     -4.152  0.7786E+01  0.3316E+02
     -4.150  0.7701E+01  0.3318E+02
     -4.147  0.7615E+01  0.3320E+02
     -4.145  0.7541E+01  0.3322E+02
     -4.142  0.7515E+01  0.3324E+02
     -4.140  0.7490E+01  0.3326E+02
     -4.137  0.7464E+01  0.3328E+02
     -4.135  0.7439E+01  0.3330E+02
     -4.132  0.7414E+01  0.3331E+02
     -4.130  0.7388E+01  0.3333E+02
     -4.127  0.7363E+01  0.3335E+02
     -4.125  0.7337E+01  0.3337E+02
     -4.122  0.7312E+01  0.3339E+02
     -4.120  0.7286E+01  0.3341E+02
     -4.117  0.7261E+01  0.3342E+02
     -4.115  0.7235E+01  0.3344E+02
     -4.112  0.7210E+01  0.3346E+02
     -4.110  0.7183E+01  0.3348E+02
     -4.107  0.7157E+01  0.3350E+02
     -4.105  0.7131E+01  0.3351E+02
     -4.102  0.7104E+01  0.3353E+02
     -4.100  0.7078E+01  0.3355E+02
     -4.097  0.7052E+01  0.3357E+02
     -4.095  0.7025E+01  0.3359E+02
     -4.092  0.6999E+01  0.3360E+02
     -4.090  0.6973E+01  0.3362E+02
     -4.087  0.6946E+01  0.3364E+02
     -4.085  0.6920E+01  0.3365E+02
     -4.082  0.6894E+01  0.3367E+02
     -4.080  0.6868E+01  0.3369E+02
     -4.077  0.6841E+01  0.3371E+02
     -4.075  0.6815E+01  0.3372E+02
     -4.072  0.6789E+01  0.3374E+02
     -4.070  0.6800E+01  0.3376E+02
     -4.067  0.6827E+01  0.3377E+02
     -4.065  0.6854E+01  0.3379E+02
     -4.062  0.6881E+01  0.3381E+02
     -4.060  0.6908E+01  0.3383E+02
     -4.057  0.6934E+01  0.3384E+02
     -4.055  0.6961E+01  0.3386E+02
     -4.052  0.6988E+01  0.3388E+02
     -4.050  0.7015E+01  0.3390E+02
     -4.047  0.7042E+01  0.3391E+02
     -4.045  0.7069E+01  0.3393E+02
     -4.042  0.7071E+01  0.3395E+02
     -4.040  0.7036E+01  0.3397E+02
     -4.037  0.7000E+01  0.3398E+02
     -4.035  0.6965E+01  0.3400E+02
     -4.032  0.6950E+01  0.3402E+02
     -4.030  0.6974E+01  0.3404E+02
     -4.027  0.6999E+01  0.3405E+02
     -4.025  0.7023E+01  0.3407E+02
     -4.022  0.7048E+01  0.3409E+02
     -4.020  0.7072E+01  0.3411E+02
     -4.017  0.7097E+01  0.3412E+02
     -4.015  0.7120E+01  0.3414E+02
     -4.012  0.7135E+01  0.3416E+02
     -4.010  0.7151E+01  0.3418E+02
     -4.007  0.7166E+01  0.3420E+02
     -4.005  0.7208E+01  0.3421E+02
     -4.002  0.7605E+01  0.3423E+02
     -3.999  0.7568E+01  0.3425E+02
     -3.997  0.7531E+01  0.3427E+02
     -3.994  0.7676E+01  0.3429E+02
     -3.992  0.7825E+01  0.3431E+02
     -3.989  0.7974E+01  0.3433E+02
     -3.987  0.8257E+01  0.3435E+02
     -3.984  0.8363E+01  0.3437E+02
     -3.982  0.8348E+01  0.3439E+02
     -3.979  0.8334E+01  0.3441E+02
     -3.977  0.8319E+01  0.3443E+02
     -3.974  0.8305E+01  0.3445E+02
     -3.972  0.8290E+01  0.3447E+02
     -3.969  0.8276E+01  0.3449E+02
     -3.967  0.8261E+01  0.3451E+02
     -3.964  0.8246E+01  0.3454E+02
     -3.962  0.8232E+01  0.3456E+02
     -3.959  0.8217E+01  0.3458E+02
     -3.957  0.8203E+01  0.3460E+02
     -3.954  0.8188E+01  0.3462E+02
     -3.952  0.8174E+01  0.3464E+02
     -3.949  0.8001E+01  0.3466E+02
     -3.947  0.7765E+01  0.3468E+02
     -3.944  0.7639E+01  0.3470E+02
     -3.942  0.7651E+01  0.3472E+02
     -3.939  0.7663E+01  0.3474E+02
     -3.937  0.7619E+01  0.3475E+02
     -3.934  0.7453E+01  0.3477E+02
     -3.932  0.7286E+01  0.3479E+02
     -3.929  0.7119E+01  0.3481E+02
     -3.927  0.6953E+01  0.3483E+02
     -3.924  0.6965E+01  0.3485E+02
     -3.922  0.6997E+01  0.3486E+02
     -3.919  0.7030E+01  0.3488E+02
     -3.917  0.7062E+01  0.3490E+02
     -3.914  0.7094E+01  0.3492E+02
     -3.912  0.7127E+01  0.3493E+02
     -3.909  0.7159E+01  0.3495E+02
     -3.907  0.7191E+01  0.3497E+02
     -3.904  0.7223E+01  0.3499E+02
     -3.902  0.7256E+01  0.3501E+02
     -3.899  0.7288E+01  0.3502E+02
     -3.897  0.7320E+01  0.3504E+02
     -3.894  0.7353E+01  0.3506E+02
     -3.892  0.7385E+01  0.3508E+02
     -3.889  0.7417E+01  0.3510E+02
     -3.887  0.7450E+01  0.3512E+02
     -3.884  0.7482E+01  0.3513E+02
     -3.882  0.7514E+01  0.3515E+02
     -3.879  0.7547E+01  0.3517E+02
     -3.877  0.7556E+01  0.3519E+02
     -3.874  0.7545E+01  0.3521E+02
     -3.872  0.7457E+01  0.3523E+02
     -3.869  0.7338E+01  0.3525E+02
     -3.867  0.7219E+01  0.3527E+02
     -3.864  0.7100E+01  0.3528E+02
     -3.862  0.6981E+01  0.3530E+02
     -3.859  0.6861E+01  0.3532E+02
     -3.857  0.6742E+01  0.3533E+02
     -3.854  0.6623E+01  0.3535E+02
     -3.852  0.6504E+01  0.3537E+02
     -3.849  0.6385E+01  0.3538E+02
     -3.847  0.6280E+01  0.3540E+02
     -3.844  0.6281E+01  0.3542E+02
     -3.842  0.6282E+01  0.3543E+02
     -3.839  0.6282E+01  0.3545E+02
     -3.837  0.6283E+01  0.3546E+02
     -3.834  0.6284E+01  0.3548E+02
     -3.832  0.6285E+01  0.3549E+02
     -3.829  0.6286E+01  0.3551E+02
     -3.827  0.6287E+01  0.3553E+02
     -3.824  0.6288E+01  0.3554E+02
     -3.822  0.6289E+01  0.3556E+02
     -3.819  0.6290E+01  0.3557E+02
     -3.817  0.6291E+01  0.3559E+02
     -3.814  0.6292E+01  0.3560E+02
     -3.812  0.6293E+01  0.3562E+02
     -3.809  0.6294E+01  0.3564E+02
     -3.807  0.6295E+01  0.3565E+02
     -3.804  0.6296E+01  0.3567E+02
     -3.802  0.6297E+01  0.3568E+02
     -3.799  0.5644E+01  0.3570E+02
     -3.797  0.5747E+01  0.3571E+02
     -3.794  0.7174E+01  0.3573E+02
     -3.792  0.8459E+01  0.3575E+02
     -3.789  0.8763E+01  0.3577E+02
     -3.787  0.6699E+01  0.3579E+02
     -3.784  0.4927E+01  0.3580E+02
     -3.782  0.4072E+01  0.3581E+02
     -3.779  0.3481E+01  0.3582E+02
     -3.777  0.3518E+01  0.3583E+02
     -3.774  0.3555E+01  0.3584E+02
     -3.772  0.3592E+01  0.3585E+02
     -3.769  0.3629E+01  0.3586E+02
     -3.767  0.3667E+01  0.3587E+02
     -3.764  0.3704E+01  0.3588E+02
     -3.762  0.3741E+01  0.3589E+02
     -3.759  0.3778E+01  0.3590E+02
     -3.757  0.3815E+01  0.3591E+02
     -3.754  0.3852E+01  0.3592E+02
     -3.752  0.3889E+01  0.3593E+02
     -3.749  0.3927E+01  0.3594E+02
     -3.747  0.3964E+01  0.3595E+02
     -3.744  0.4001E+01  0.3596E+02
     -3.742  0.4038E+01  0.3597E+02
     -3.739  0.4075E+01  0.3598E+02
     -3.737  0.4112E+01  0.3599E+02
     -3.734  0.4150E+01  0.3600E+02
     -3.732  0.4187E+01  0.3601E+02
     -3.729  0.4224E+01  0.3602E+02
     -3.727  0.4261E+01  0.3603E+02
     -3.724  0.4298E+01  0.3604E+02
     -3.722  0.4213E+01  0.3605E+02
     -3.719  0.4042E+01  0.3606E+02
     -3.717  0.3872E+01  0.3607E+02
     -3.714  0.3702E+01  0.3608E+02
     -3.712  0.3721E+01  0.3609E+02
     -3.709  0.3740E+01  0.3610E+02
     -3.707  0.3750E+01  0.3611E+02
     -3.704  0.3753E+01  0.3612E+02
     -3.702  0.3756E+01  0.3613E+02
     -3.699  0.3759E+01  0.3613E+02
     -3.697  0.3762E+01  0.3614E+02
     -3.694  0.3765E+01  0.3615E+02
     -3.692  0.3768E+01  0.3616E+02
     -3.689  0.3771E+01  0.3617E+02
     -3.687  0.3774E+01  0.3618E+02
     -3.684  0.3776E+01  0.3619E+02
     -3.682  0.3779E+01  0.3620E+02
     -3.679  0.3782E+01  0.3621E+02
     -3.677  0.3785E+01  0.3622E+02
     -3.674  0.3788E+01  0.3623E+02
     -3.672  0.3791E+01  0.3624E+02
     -3.669  0.3794E+01  0.3625E+02
     -3.667  0.3797E+01  0.3626E+02
     -3.664  0.3800E+01  0.3627E+02
     -3.662  0.3803E+01  0.3628E+02
     -3.659  0.3806E+01  0.3629E+02
     -3.657  0.3808E+01  0.3630E+02
     -3.654  0.3811E+01  0.3631E+02
     -3.652  0.3814E+01  0.3631E+02
     -3.649  0.3833E+01  0.3632E+02
     -3.647  0.3989E+01  0.3633E+02
     -3.644  0.4145E+01  0.3634E+02
     -3.642  0.4302E+01  0.3635E+02
     -3.639  0.4458E+01  0.3637E+02
     -3.637  0.4614E+01  0.3638E+02
     -3.634  0.4771E+01  0.3639E+02
     -3.632  0.4927E+01  0.3640E+02
     -3.629  0.5083E+01  0.3641E+02
     -3.627  0.5240E+01  0.3643E+02
     -3.624  0.5360E+01  0.3644E+02
     -3.622  0.5323E+01  0.3645E+02
     -3.619  0.5286E+01  0.3647E+02
     -3.617  0.5249E+01  0.3648E+02
     -3.614  0.5212E+01  0.3649E+02
     -3.612  0.5175E+01  0.3651E+02
     -3.609  0.5138E+01  0.3652E+02
     -3.607  0.5101E+01  0.3653E+02
     -3.604  0.5064E+01  0.3654E+02
     -3.602  0.5027E+01  0.3656E+02
     -3.599  0.4990E+01  0.3657E+02
     -3.597  0.4953E+01  0.3658E+02
     -3.594  0.4916E+01  0.3659E+02
     -3.592  0.4879E+01  0.3661E+02
     -3.589  0.4842E+01  0.3662E+02
     -3.587  0.4805E+01  0.3663E+02
     -3.584  0.4768E+01  0.3664E+02
     -3.582  0.4731E+01  0.3665E+02
     -3.579  0.4694E+01  0.3667E+02
     -3.577  0.4657E+01  0.3668E+02
     -3.574  0.4620E+01  0.3669E+02
     -3.572  0.4585E+01  0.3670E+02
     -3.569  0.4551E+01  0.3671E+02
     -3.567  0.4518E+01  0.3672E+02
     -3.564  0.4484E+01  0.3673E+02
     -3.562  0.4450E+01  0.3675E+02
     -3.559  0.4416E+01  0.3676E+02
     -3.557  0.4382E+01  0.3677E+02
     -3.554  0.4348E+01  0.3678E+02
     -3.552  0.4315E+01  0.3679E+02
     -3.549  0.4281E+01  0.3680E+02
     -3.547  0.4247E+01  0.3681E+02
     -3.544  0.4213E+01  0.3682E+02
     -3.542  0.4179E+01  0.3683E+02
     -3.539  0.4145E+01  0.3684E+02
     -3.537  0.4112E+01  0.3685E+02
     -3.534  0.4078E+01  0.3686E+02
     -3.532  0.4044E+01  0.3687E+02
     -3.529  0.4010E+01  0.3688E+02
     -3.527  0.3976E+01  0.3689E+02
     -3.524  0.3943E+01  0.3690E+02
     -3.522  0.3909E+01  0.3691E+02
     -3.519  0.3875E+01  0.3692E+02
     -3.517  0.3841E+01  0.3693E+02
     -3.514  0.3807E+01  0.3694E+02
     -3.512  0.3773E+01  0.3695E+02
     -3.509  0.3740E+01  0.3696E+02
     -3.507  0.3706E+01  0.3697E+02
     -3.504  0.3693E+01  0.3698E+02
     -3.502  0.3687E+01  0.3699E+02
     -3.499  0.3681E+01  0.3700E+02
     -3.497  0.3675E+01  0.3701E+02
     -3.494  0.3669E+01  0.3702E+02
     -3.492  0.3663E+01  0.3703E+02
     -3.489  0.3657E+01  0.3703E+02
     -3.487  0.3651E+01  0.3704E+02
     -3.484  0.3645E+01  0.3705E+02
     -3.482  0.3639E+01  0.3706E+02
     -3.479  0.3633E+01  0.3707E+02
     -3.477  0.3627E+01  0.3708E+02
     -3.474  0.3638E+01  0.3709E+02
     -3.472  0.3658E+01  0.3710E+02
     -3.469  0.3679E+01  0.3711E+02
     -3.467  0.3699E+01  0.3712E+02
     -3.464  0.3719E+01  0.3713E+02
     -3.462  0.3739E+01  0.3714E+02
     -3.459  0.3752E+01  0.3714E+02
     -3.457  0.3746E+01  0.3715E+02
     -3.454  0.3739E+01  0.3716E+02
     -3.452  0.3733E+01  0.3717E+02
     -3.449  0.3727E+01  0.3718E+02
     -3.447  0.3720E+01  0.3719E+02
     -3.444  0.3714E+01  0.3720E+02
     -3.442  0.3707E+01  0.3721E+02
     -3.439  0.3701E+01  0.3722E+02
     -3.437  0.3695E+01  0.3723E+02
     -3.434  0.3688E+01  0.3724E+02
     -3.432  0.3682E+01  0.3725E+02
     -3.429  0.3676E+01  0.3726E+02
     -3.427  0.3669E+01  0.3727E+02
     -3.424  0.3663E+01  0.3727E+02
     -3.422  0.3656E+01  0.3728E+02
     -3.419  0.3650E+01  0.3729E+02
     -3.417  0.3644E+01  0.3730E+02
     -3.414  0.3639E+01  0.3731E+02
     -3.412  0.3635E+01  0.3732E+02
     -3.409  0.3631E+01  0.3733E+02
     -3.407  0.3628E+01  0.3734E+02
     -3.404  0.3624E+01  0.3735E+02
     -3.402  0.3621E+01  0.3736E+02
     -3.399  0.3617E+01  0.3737E+02
     -3.397  0.3614E+01  0.3737E+02
     -3.394  0.3610E+01  0.3738E+02
     -3.392  0.3606E+01  0.3739E+02
     -3.389  0.3603E+01  0.3740E+02
     -3.387  0.3599E+01  0.3741E+02
     -3.384  0.3596E+01  0.3742E+02
     -3.382  0.3592E+01  0.3743E+02
     -3.379  0.3588E+01  0.3744E+02
     -3.377  0.3585E+01  0.3745E+02
     -3.374  0.3581E+01  0.3746E+02
     -3.372  0.3578E+01  0.3746E+02
     -3.369  0.3574E+01  0.3747E+02
     -3.367  0.3571E+01  0.3748E+02
     -3.364  0.3567E+01  0.3749E+02
     -3.362  0.3563E+01  0.3750E+02
     -3.359  0.3560E+01  0.3751E+02
     -3.357  0.3556E+01  0.3752E+02
     -3.354  0.3553E+01  0.3753E+02
     -3.352  0.3549E+01  0.3754E+02
     -3.349  0.3547E+01  0.3754E+02
     -3.347  0.3544E+01  0.3755E+02
     -3.344  0.3542E+01  0.3756E+02
     -3.342  0.3540E+01  0.3757E+02
     -3.339  0.3543E+01  0.3758E+02
     -3.337  0.3551E+01  0.3759E+02
     -3.334  0.3559E+01  0.3760E+02
     -3.332  0.3567E+01  0.3761E+02
     -3.329  0.3574E+01  0.3762E+02
     -3.327  0.3582E+01  0.3762E+02
     -3.324  0.3590E+01  0.3763E+02
     -3.322  0.3598E+01  0.3764E+02
     -3.319  0.3606E+01  0.3765E+02
     -3.317  0.3614E+01  0.3766E+02
     -3.314  0.3622E+01  0.3767E+02
     -3.312  0.3630E+01  0.3768E+02
     -3.309  0.3638E+01  0.3769E+02
     -3.307  0.3646E+01  0.3770E+02
     -3.304  0.3654E+01  0.3771E+02
     -3.302  0.3662E+01  0.3772E+02
     -3.299  0.3670E+01  0.3772E+02
     -3.297  0.3678E+01  0.3773E+02
     -3.294  0.3686E+01  0.3774E+02
     -3.292  0.3694E+01  0.3775E+02
     -3.289  0.3702E+01  0.3776E+02
     -3.287  0.3710E+01  0.3777E+02
     -3.284  0.3718E+01  0.3778E+02
     -3.282  0.3754E+01  0.3779E+02
     -3.279  0.3795E+01  0.3780E+02
     -3.277  0.3837E+01  0.3781E+02
     -3.274  0.3879E+01  0.3782E+02
     -3.272  0.3921E+01  0.3783E+02
     -3.269  0.3962E+01  0.3784E+02
     -3.267  0.4004E+01  0.3785E+02
     -3.264  0.4046E+01  0.3786E+02
     -3.262  0.4088E+01  0.3787E+02
     -3.259  0.4129E+01  0.3788E+02
     -3.257  0.4171E+01  0.3789E+02
     -3.254  0.4213E+01  0.3790E+02
     -3.252  0.4255E+01  0.3791E+02
     -3.249  0.4296E+01  0.3792E+02
     -3.247  0.4338E+01  0.3793E+02
     -3.244  0.4418E+01  0.3794E+02
     -3.242  0.4566E+01  0.3795E+02
     -3.239  0.4714E+01  0.3796E+02
     -3.237  0.4863E+01  0.3798E+02
     -3.234  0.4950E+01  0.3799E+02
     -3.232  0.4991E+01  0.3800E+02
     -3.229  0.5073E+01  0.3801E+02
     -3.227  0.5157E+01  0.3803E+02
     -3.224  0.5241E+01  0.3804E+02
     -3.222  0.5325E+01  0.3805E+02
     -3.219  0.5408E+01  0.3807E+02
     -3.217  0.5491E+01  0.3808E+02
     -3.214  0.5427E+01  0.3809E+02
     -3.212  0.5365E+01  0.3811E+02
     -3.209  0.5271E+01  0.3812E+02
     -3.207  0.5176E+01  0.3813E+02
     -3.204  0.5156E+01  0.3815E+02
     -3.202  0.5141E+01  0.3816E+02
     -3.199  0.5127E+01  0.3817E+02
     -3.197  0.5112E+01  0.3819E+02
     -3.194  0.5098E+01  0.3820E+02
     -3.192  0.5083E+01  0.3821E+02
     -3.189  0.5069E+01  0.3822E+02
     -3.187  0.5055E+01  0.3824E+02
     -3.184  0.5040E+01  0.3825E+02
     -3.182  0.5026E+01  0.3826E+02
     -3.179  0.5011E+01  0.3827E+02
     -3.177  0.4997E+01  0.3829E+02
     -3.174  0.4982E+01  0.3830E+02
     -3.172  0.4968E+01  0.3831E+02
     -3.169  0.4953E+01  0.3832E+02
     -3.167  0.4939E+01  0.3834E+02
     -3.164  0.4924E+01  0.3835E+02
     -3.162  0.4910E+01  0.3836E+02
     -3.159  0.4896E+01  0.3837E+02
     -3.157  0.4881E+01  0.3839E+02
     -3.154  0.4867E+01  0.3840E+02
     -3.152  0.4852E+01  0.3841E+02
     -3.149  0.4838E+01  0.3842E+02
     -3.147  0.4823E+01  0.3843E+02
     -3.144  0.4809E+01  0.3845E+02
     -3.142  0.4794E+01  0.3846E+02
     -3.139  0.4780E+01  0.3847E+02
     -3.137  0.4765E+01  0.3848E+02
     -3.134  0.4751E+01  0.3849E+02
     -3.132  0.4737E+01  0.3851E+02
     -3.129  0.4722E+01  0.3852E+02
     -3.127  0.4708E+01  0.3853E+02
     -3.124  0.4693E+01  0.3854E+02
     -3.122  0.4679E+01  0.3855E+02
     -3.119  0.4664E+01  0.3856E+02
     -3.117  0.4650E+01  0.3858E+02
     -3.114  0.4635E+01  0.3859E+02
     -3.112  0.4621E+01  0.3860E+02
     -3.109  0.4606E+01  0.3861E+02
     -3.107  0.4592E+01  0.3862E+02
     -3.104  0.4578E+01  0.3863E+02
     -3.102  0.4563E+01  0.3864E+02
     -3.099  0.4549E+01  0.3866E+02
     -3.097  0.4534E+01  0.3867E+02
     -3.094  0.4520E+01  0.3868E+02
     -3.092  0.4505E+01  0.3869E+02
     -3.089  0.4491E+01  0.3870E+02
     -3.087  0.4476E+01  0.3871E+02
     -3.084  0.4462E+01  0.3872E+02
     -3.082  0.4447E+01  0.3874E+02
     -3.079  0.4433E+01  0.3875E+02
     -3.077  0.4419E+01  0.3876E+02
     -3.074  0.4402E+01  0.3877E+02
     -3.072  0.4384E+01  0.3878E+02
     -3.069  0.4366E+01  0.3879E+02
     -3.067  0.4347E+01  0.3880E+02
     -3.064  0.4329E+01  0.3881E+02
     -3.062  0.4332E+01  0.3882E+02
     -3.059  0.4344E+01  0.3883E+02
     -3.057  0.4356E+01  0.3884E+02
     -3.054  0.4369E+01  0.3886E+02
     -3.052  0.4381E+01  0.3887E+02
     -3.049  0.4393E+01  0.3888E+02
     -3.047  0.4400E+01  0.3889E+02
     -3.044  0.4404E+01  0.3890E+02
     -3.042  0.4407E+01  0.3891E+02
     -3.039  0.4410E+01  0.3892E+02
     -3.037  0.4414E+01  0.3893E+02
     -3.034  0.4417E+01  0.3894E+02
     -3.032  0.4421E+01  0.3895E+02
     -3.029  0.4425E+01  0.3897E+02
     -3.027  0.4434E+01  0.3898E+02
     -3.024  0.4443E+01  0.3899E+02
     -3.022  0.4452E+01  0.3900E+02
     -3.019  0.4461E+01  0.3901E+02
     -3.017  0.4470E+01  0.3902E+02
     -3.014  0.4479E+01  0.3903E+02
     -3.012  0.4488E+01  0.3904E+02
     -3.009  0.4497E+01  0.3905E+02
     -3.007  0.4506E+01  0.3907E+02
     -3.004  0.4515E+01  0.3908E+02
     -3.002  0.4524E+01  0.3909E+02
     -2.999  0.4533E+01  0.3910E+02
     -2.996  0.4543E+01  0.3911E+02
     -2.994  0.4552E+01  0.3912E+02
     -2.991  0.4561E+01  0.3913E+02
     -2.989  0.4570E+01  0.3915E+02
     -2.986  0.4579E+01  0.3916E+02
     -2.984  0.4588E+01  0.3917E+02
     -2.981  0.4596E+01  0.3918E+02
     -2.979  0.4607E+01  0.3919E+02
     -2.976  0.4617E+01  0.3920E+02
     -2.974  0.4614E+01  0.3921E+02
     -2.971  0.4586E+01  0.3923E+02
     -2.969  0.4558E+01  0.3924E+02
     -2.966  0.4530E+01  0.3925E+02
     -2.964  0.4502E+01  0.3926E+02
     -2.961  0.4474E+01  0.3927E+02
     -2.959  0.4446E+01  0.3928E+02
     -2.956  0.4418E+01  0.3929E+02
     -2.954  0.4390E+01  0.3930E+02
     -2.951  0.4388E+01  0.3932E+02
     -2.949  0.4461E+01  0.3933E+02
     -2.946  0.4543E+01  0.3934E+02
     -2.944  0.4625E+01  0.3935E+02
     -2.941  0.4707E+01  0.3936E+02
     -2.939  0.4790E+01  0.3937E+02
     -2.936  0.4872E+01  0.3939E+02